unknown system                          
   2.46800000000000     
     1.000000    0.000000    0.000000
     0.500000    0.866025    0.000000
     0.000000    0.000000    5.000000
   C 
     2
Direct
  0.000000  0.000000  0.500000
  0.333333  0.333333  0.500000
 
   24   24  120
 0.21535996533E-01 0.19931363897E-01 0.15745820354E-01 0.10502436915E-01 0.57914081362E-02
 0.25450843032E-02 0.83686712244E-03 0.19163419808E-03 0.57924378638E-04 0.92529796262E-04
 0.16542210847E-03 0.23343373839E-03 0.26158352073E-03 0.23226755050E-03 0.16469192162E-03
 0.93311718771E-04 0.59383523229E-04 0.19216690245E-03 0.83611294267E-03 0.25441501144E-02
 0.57912711828E-02 0.10502865843E-01 0.15746074861E-01 0.19931311608E-01 0.19931363897E-01
 0.17036674888E-01 0.12360375341E-01 0.74929334695E-02 0.36874858453E-02 0.13991155800E-02
 0.38110484447E-03 0.11603790875E-03 0.19163419811E-03 0.40088154221E-03 0.63793096610E-03
 0.79899768127E-03 0.79909968369E-03 0.63809518811E-03 0.40087924131E-03 0.19145563847E-03
 0.11587407293E-03 0.38105567457E-03 0.13990713785E-02 0.36873504803E-02 0.74928290487E-02
 0.12360487879E-01 0.17036948980E-01 0.19931511568E-01 0.15745820354E-01 0.12360375341E-01
 0.81545654700E-02 0.44204876431E-02 0.18896089668E-02 0.60783273998E-03 0.22779193383E-03
 0.38110484448E-03 0.83686712243E-03 0.14270937364E-02 0.19386413753E-02 0.21438156114E-02
 0.19397461376E-02 0.14276579204E-02 0.83591538382E-03 0.37970357230E-03 0.22759262887E-03
 0.60888594297E-03 0.18904525586E-02 0.44201967085E-02 0.81537979829E-02 0.12360148320E-01
 0.15746066471E-01 0.17049564004E-01 0.10502436915E-01 0.74929334695E-02 0.44204876432E-02
 0.20866043515E-02 0.76734116402E-03 0.34555568340E-03 0.60783273999E-03 0.13991155800E-02
 0.25450843032E-02 0.37180559097E-02 0.44718832488E-02 0.44719823706E-02 0.37182684496E-02
 0.25452227473E-02 0.13990509415E-02 0.60762939110E-03 0.34543671128E-03 0.76747231418E-03
 0.20868965563E-02 0.44206556198E-02 0.74927914681E-02 0.10502118887E-01 0.12387254659E-01
 0.12387418476E-01 0.57914081362E-02 0.36874858452E-02 0.18896089668E-02 0.76734116402E-03
 0.39749839907E-03 0.76734116396E-03 0.18896089667E-02 0.36874858452E-02 0.57914081362E-02
 0.75255549166E-02 0.82009361980E-02 0.75248775004E-02 0.57912852962E-02 0.36884395382E-02
 0.18905124578E-02 0.76696945294E-03 0.39633632599E-03 0.76696945298E-03 0.18905124578E-02
 0.36884395382E-02 0.57912852962E-02 0.75248775004E-02 0.82009361980E-02 0.75255549166E-02
 0.25450843032E-02 0.13991155800E-02 0.60783274000E-03 0.34555568336E-03 0.76734116398E-03
 0.20866043515E-02 0.44204876431E-02 0.74929334695E-02 0.10502436915E-01 0.12387418476E-01
 0.12387254659E-01 0.10502118887E-01 0.74927914681E-02 0.44206556198E-02 0.20868965563E-02
 0.76747231415E-03 0.34543671127E-03 0.60762939109E-03 0.13990509415E-02 0.25452227473E-02
 0.37182684496E-02 0.44719823706E-02 0.44718832488E-02 0.37180559097E-02 0.83686712246E-03
 0.38110484451E-03 0.22779193386E-03 0.60783274003E-03 0.18896089667E-02 0.44204876431E-02
 0.81545654700E-02 0.12360375341E-01 0.15745820354E-01 0.17049564004E-01 0.15746066471E-01
 0.12360148320E-01 0.81537979829E-02 0.44201967085E-02 0.18904525587E-02 0.60888594295E-03
 0.22759262889E-03 0.37970357230E-03 0.83591538383E-03 0.14276579204E-02 0.19397461377E-02
 0.21438156114E-02 0.19386413753E-02 0.14270937364E-02 0.19163419812E-03 0.11603790878E-03
 0.38110484450E-03 0.13991155800E-02 0.36874858453E-02 0.74929334695E-02 0.12360375341E-01
 0.17036674888E-01 0.19931363897E-01 0.19931511568E-01 0.17036948980E-01 0.12360487879E-01
 0.74928290487E-02 0.36873504804E-02 0.13990713784E-02 0.38105567455E-03 0.11587407291E-03
 0.19145563850E-03 0.40087924134E-03 0.63809518808E-03 0.79909968367E-03 0.79899768126E-03
 0.63793096606E-03 0.40088154221E-03 0.57924378666E-04 0.19163419814E-03 0.83686712246E-03
 0.25450843032E-02 0.57914081362E-02 0.10502436915E-01 0.15745820354E-01 0.19931363897E-01
 0.21535996533E-01 0.19931311608E-01 0.15746074861E-01 0.10502865843E-01 0.57912711828E-02
 0.25441501144E-02 0.83611294266E-03 0.19216690244E-03 0.59383523244E-04 0.93311718778E-04
 0.16469192164E-03 0.23226755051E-03 0.26158352073E-03 0.23343373838E-03 0.16542210846E-03
 0.92529796234E-04 0.92529796234E-04 0.40088154223E-03 0.14270937364E-02 0.37180559097E-02
 0.75255549166E-02 0.12387418476E-01 0.17049564004E-01 0.19931511568E-01 0.19931311608E-01
 0.17049165621E-01 0.12387160824E-01 0.75255114142E-02 0.37180723331E-02 0.14271519206E-02
 0.40116483056E-03 0.93045355257E-04 0.51741241847E-04 0.63314566241E-04 0.77017413613E-04
 0.87517106937E-04 0.87808499497E-04 0.77549735153E-04 0.63481052461E-04 0.51377041565E-04
 0.16542210847E-03 0.63793096611E-03 0.19386413753E-02 0.44718832488E-02 0.82009361980E-02
 0.12387254659E-01 0.15746066471E-01 0.17036948980E-01 0.15746074861E-01 0.12387160824E-01
 0.82008846086E-02 0.44722298864E-02 0.19393423196E-02 0.63829529499E-03 0.16486139979E-03
 0.62397293984E-04 0.54701889216E-04 0.52683835058E-04 0.50580733376E-04 0.50086345460E-04
 0.49771704870E-04 0.52145775207E-04 0.55214493290E-04 0.63481052429E-04 0.23343373837E-03
 0.79899768127E-03 0.21438156113E-02 0.44719823706E-02 0.75248775004E-02 0.10502118887E-01
 0.12360148320E-01 0.12360487879E-01 0.10502865843E-01 0.75255114142E-02 0.44722298864E-02
 0.21437397930E-02 0.79870196814E-03 0.23292409710E-03 0.76951918576E-04 0.51828021043E-04
 0.43005201567E-04 0.35451975529E-04 0.33007734242E-04 0.32711447014E-04 0.34885704522E-04
 0.42765900888E-04 0.52145775211E-04 0.77549735153E-04 0.26158352073E-03 0.79909968370E-03
 0.19397461377E-02 0.37182684495E-02 0.57912852962E-02 0.74927914681E-02 0.81537979829E-02
 0.74928290487E-02 0.57912711828E-02 0.37180723331E-02 0.19393423196E-02 0.79870196814E-03
 0.26153590357E-03 0.88232411063E-04 0.50352580850E-04 0.35135094482E-04 0.22363923401E-04
 0.17462379938E-04 0.17446317289E-04 0.17800919830E-04 0.22591090689E-04 0.34885704503E-04
 0.49771704862E-04 0.87808499465E-04 0.23226755050E-03 0.63809518810E-03 0.14276579204E-02
 0.25452227473E-02 0.36884395382E-02 0.44206556198E-02 0.44201967084E-02 0.36873504803E-02
 0.25441501143E-02 0.14271519206E-02 0.63829529499E-03 0.23292409711E-03 0.88232411073E-04
 0.50546030014E-04 0.32794390215E-04 0.17587837434E-04 0.11353510110E-04 0.12307994203E-04
 0.12437540609E-04 0.11641775252E-04 0.17800919812E-04 0.32711446993E-04 0.50086345430E-04
 0.87517106909E-04 0.16469192162E-03 0.40087924131E-03 0.83591538382E-03 0.13990509415E-02
 0.18905124578E-02 0.20868965563E-02 0.18904525586E-02 0.13990713785E-02 0.83611294266E-03
 0.40116483058E-03 0.16486139979E-03 0.76951918601E-04 0.50352580839E-04 0.32794390215E-04
 0.17367112468E-04 0.12477542477E-04 0.16946544910E-04 0.20376041768E-04 0.16885576561E-04
 0.12437540601E-04 0.17446317264E-04 0.33007734197E-04 0.50580733330E-04 0.77017413570E-04
 0.93311718786E-04 0.19145563849E-03 0.37970357234E-03 0.60762939108E-03 0.76696945294E-03
 0.76747231412E-03 0.60888594293E-03 0.38105567456E-03 0.19216690243E-03 0.93045355264E-04
 0.62397293998E-04 0.51828021061E-04 0.35135094487E-04 0.17587837435E-04 0.12477542464E-04
 0.20388581181E-04 0.29766374424E-04 0.29798802407E-04 0.20376041796E-04 0.12307994218E-04
 0.17462379949E-04 0.35451975529E-04 0.52683835065E-04 0.63314566223E-04 0.59383523251E-04
 0.11587407293E-03 0.22759262887E-03 0.34543671129E-03 0.39633632602E-03 0.34543671128E-03
 0.22759262887E-03 0.11587407290E-03 0.59383523237E-04 0.51741241883E-04 0.54701889216E-04
 0.43005201579E-04 0.22363923399E-04 0.11353510109E-04 0.16946544918E-04 0.29766374405E-04
 0.36040879015E-04 0.29766374402E-04 0.16946544926E-04 0.11353510125E-04 0.22363923406E-04
 0.43005201563E-04 0.54701889219E-04 0.51741241830E-04 0.19216690243E-03 0.38105567457E-03
 0.60888594297E-03 0.76747231414E-03 0.76696945295E-03 0.60762939108E-03 0.37970357230E-03
 0.19145563849E-03 0.93311718800E-04 0.63314566244E-04 0.52683835083E-04 0.35451975547E-04
 0.17462379954E-04 0.12307994201E-04 0.20376041770E-04 0.29798802402E-04 0.29766374405E-04
 0.20388581176E-04 0.12477542482E-04 0.17587837444E-04 0.35135094491E-04 0.51828021043E-04
 0.62397293977E-04 0.93045355278E-04 0.83611294266E-03 0.13990713785E-02 0.18904525586E-02
 0.20868965563E-02 0.18905124578E-02 0.13990509415E-02 0.83591538382E-03 0.40087924129E-03
 0.16469192161E-03 0.77017413595E-04 0.50580733351E-04 0.33007734224E-04 0.17446317264E-04
 0.12437540597E-04 0.16885576549E-04 0.20376041777E-04 0.16946544907E-04 0.12477542463E-04
 0.17367112470E-04 0.32794390219E-04 0.50352580828E-04 0.76951918576E-04 0.16486139977E-03
 0.40116483055E-03 0.25441501144E-02 0.36873504804E-02 0.44201967084E-02 0.44206556198E-02
 0.36884395383E-02 0.25452227473E-02 0.14276579204E-02 0.63809518811E-03 0.23226755049E-03
 0.87517106952E-04 0.50086345455E-04 0.32711447016E-04 0.17800919830E-04 0.11641775243E-04
 0.12437540582E-04 0.12307994198E-04 0.11353510112E-04 0.17587837430E-04 0.32794390233E-04
 0.50546030000E-04 0.88232411048E-04 0.23292409707E-03 0.63829529496E-03 0.14271519206E-02
 0.57912711828E-02 0.74928290487E-02 0.81537979829E-02 0.74927914681E-02 0.57912852962E-02
 0.37182684495E-02 0.19397461377E-02 0.79909968368E-03 0.26158352073E-03 0.87808499515E-04
 0.49771704859E-04 0.34885704537E-04 0.22591090696E-04 0.17800919828E-04 0.17446317280E-04
 0.17462379946E-04 0.22363923410E-04 0.35135094475E-04 0.50352580850E-04 0.88232411066E-04
 0.26153590355E-03 0.79870196812E-03 0.19393423196E-02 0.37180723331E-02 0.10502865843E-01
 0.12360487879E-01 0.12360148320E-01 0.10502118887E-01 0.75248775005E-02 0.44719823706E-02
 0.21438156114E-02 0.79899768127E-03 0.23343373835E-03 0.77549735156E-04 0.52145775236E-04
 0.42765900918E-04 0.34885704535E-04 0.32711447011E-04 0.33007734212E-04 0.35451975521E-04
 0.43005201560E-04 0.51828021046E-04 0.76951918604E-04 0.23292409711E-03 0.79870196812E-03
 0.21437397930E-02 0.44722298864E-02 0.75255114142E-02 0.15746074861E-01 0.17036948980E-01
 0.15746066471E-01 0.12387254659E-01 0.82009361980E-02 0.44718832488E-02 0.19386413753E-02
 0.63793096608E-03 0.16542210846E-03 0.63481052457E-04 0.55214493280E-04 0.52145775221E-04
 0.49771704866E-04 0.50086345444E-04 0.50580733358E-04 0.52683835055E-04 0.54701889216E-04
 0.62397293977E-04 0.16486139979E-03 0.63829529500E-03 0.19393423196E-02 0.44722298863E-02
 0.82008846085E-02 0.12387160824E-01 0.19931311608E-01 0.19931511568E-01 0.17049564004E-01
 0.12387418476E-01 0.75255549166E-02 0.37180559097E-02 0.14270937364E-02 0.40088154220E-03
 0.92529796234E-04 0.51377041565E-04 0.63481052457E-04 0.77549735156E-04 0.87808499494E-04
 0.87517106948E-04 0.77017413581E-04 0.63314566226E-04 0.51741241840E-04 0.93045355278E-04
 0.40116483057E-03 0.14271519206E-02 0.37180723331E-02 0.75255114142E-02 0.12387160824E-01
 0.17049165621E-01 0.55585718003E-03 0.45836153695E-03 0.37172384549E-03 0.28287438900E-03
 0.16301801227E-03 0.79550192289E-04 0.78706376975E-04 0.80436688606E-04 0.19754802324E-04
 -.29809402758E-04 0.19970337881E-05 0.45712822555E-04 0.24664751777E-04 -.51687294871E-05
 0.22844798487E-04 0.51931825336E-04 0.20815548524E-04 -.72631474097E-05 0.37827481634E-04
 0.10985935447E-03 0.16294404046E-03 0.25961625148E-03 0.43234941194E-03 0.56640150267E-03
 0.45836153691E-03 0.39264652118E-03 0.35322488799E-03 0.26098476606E-03 0.12696412050E-03
 0.56712216185E-04 0.53599937289E-04 0.21622673103E-04 -.34549327736E-04 -.16934620483E-04
 0.59354312960E-04 0.74688055008E-04 0.22176684226E-04 0.11238680187E-04 0.53203720498E-04
 0.49813718313E-04 -.15494003591E-05 0.34155782487E-05 0.78396602262E-04 0.13883658960E-03
 0.18938487919E-03 0.31251029174E-03 0.46979542244E-03 0.52282890708E-03 0.37172384548E-03
 0.35322488799E-03 0.30233575698E-03 0.15863395028E-03 0.24954348149E-04 0.26296604503E-05
 0.23417660771E-04 0.22689011843E-05 -.65250108605E-06 0.71981521010E-04 0.12666546841E-03
 0.82562678642E-04 0.27368056031E-04 0.50523578714E-04 0.77396789521E-04 0.28175538731E-04
 -.16401568438E-04 0.31684671598E-04 0.10553617990E-03 0.13197956994E-03 0.18275107773E-03
 0.31692310484E-03 0.43054467120E-03 0.42505172113E-03 0.28287438901E-03 0.26098476607E-03
 0.15863395026E-03 0.10956807785E-04 -.36079198466E-04 0.25001863072E-04 0.61723210884E-04
 0.48949701871E-04 0.84111622115E-04 0.15935883529E-03 0.15931539299E-03 0.89767152190E-04
 0.72330453094E-04 0.10830387350E-03 0.82305577266E-04 0.12617793388E-05 -.71650756936E-05
 0.64378519149E-04 0.99769705997E-04 0.96496017022E-04 0.16685171640E-03 0.29945735174E-03
 0.35692705623E-03 0.31668213300E-03 0.16301801227E-03 0.12696412051E-03 0.24954348120E-04
 -.36079198480E-04 0.26441040561E-04 0.10801462835E-03 0.10431322620E-03 0.93294880180E-04
 0.16301801224E-03 0.23004654132E-03 0.20209000540E-03 0.15276952196E-03 0.16288326891E-03
 0.15641940759E-03 0.65928859186E-04 -.80247634813E-05 0.25624466446E-04 0.79459958826E-04
 0.64647751813E-04 0.65166317057E-04 0.16288326893E-03 0.25879920917E-03 0.24360381297E-03
 0.18257545011E-03 0.79550192297E-04 0.56712216221E-04 0.26296604503E-05 0.25001863051E-04
 0.10801462834E-03 0.12914390864E-03 0.99540399816E-04 0.15056017951E-03 0.27831295918E-03
 0.33824649824E-03 0.29783350581E-03 0.26139321212E-03 0.24452202511E-03 0.16184238166E-03
 0.40676155578E-04 0.77694145872E-05 0.57084642208E-04 0.62839775659E-04 0.23212026854E-04
 0.55463137244E-04 0.15000076183E-03 0.16989011343E-03 0.10022184253E-03 0.62736099679E-04
 0.78706377003E-04 0.53599937289E-04 0.23417660785E-04 0.61723210919E-04 0.10431322620E-03
 0.99540399859E-04 0.14361800078E-03 0.30189385187E-03 0.45108272359E-03 0.46258090634E-03
 0.39269960068E-03 0.33795251567E-03 0.26210995580E-03 0.12572675574E-03 0.24896194432E-04
 0.34169117470E-04 0.62957309630E-04 0.25691092851E-04 -.68098118078E-06 0.56776392874E-04
 0.10672693412E-03 0.61533267832E-04 0.57927827370E-05 0.34452335804E-04 0.80436688620E-04
 0.21622673096E-04 0.22689012127E-05 0.48949701871E-04 0.93294880216E-04 0.15056017952E-03
 0.30189385186E-03 0.49530859339E-03 0.57334755327E-03 0.50902705617E-03 0.41846438639E-03
 0.34281191702E-03 0.22213915696E-03 0.81252739314E-04 0.27065566186E-04 0.52262168467E-04
 0.44625468284E-04 -.40017636636E-05 0.18726844075E-05 0.56316902132E-04 0.54930962001E-04
 0.23276080796E-05 0.80232768198E-05 0.71925600807E-04 0.19754802331E-04 -.34549327708E-04
 -.65250105763E-06 0.84111622137E-04 0.16301801229E-03 0.27831295917E-03 0.45108272353E-03
 0.57334755328E-03 0.55585718004E-03 0.46521733723E-03 0.39083560439E-03 0.30224182094E-03
 0.16294404046E-03 0.52457188389E-04 0.39108589021E-04 0.53907386956E-04 0.20815548524E-04
 -.92387090085E-05 0.21563691117E-04 0.52233436609E-04 0.24664751759E-04 0.30872530985E-05
 0.43510841341E-04 0.71374762655E-04 -.29809402772E-04 -.16934620447E-04 0.71981521003E-04
 0.15935883532E-03 0.23004654132E-03 0.33824649827E-03 0.46258090633E-03 0.50902705617E-03
 0.46521733718E-03 0.40603058157E-03 0.34601832528E-03 0.23551218496E-03 0.10160121209E-03
 0.37703624216E-04 0.46502494797E-04 0.41083385074E-04 0.49571297325E-05 0.38586832432E-05
 0.39340003301E-04 0.41710834012E-04 0.10500838133E-04 0.12630511414E-04 0.40287138589E-04
 0.20996471221E-04 0.19970337846E-05 0.59354312960E-04 0.12666546840E-03 0.15931539298E-03
 0.20209000540E-03 0.29783350579E-03 0.39269960066E-03 0.41846438636E-03 0.39083560436E-03
 0.34601832523E-03 0.26427192243E-03 0.14052156835E-03 0.46005751827E-04 0.30852724940E-04
 0.42456237615E-04 0.21949589723E-04 0.61328650247E-06 0.19902508615E-04 0.41369260693E-04
 0.22164168294E-04 -.14138811757E-05 0.10204010348E-04 0.21748156538E-04 0.27579533892E-05
 0.45712822541E-04 0.74688055015E-04 0.82562678635E-04 0.89767152204E-04 0.15276952196E-03
 0.26139321210E-03 0.33795251562E-03 0.34281191702E-03 0.30224182093E-03 0.23551218497E-03
 0.14052156832E-03 0.50927079037E-04 0.18434118040E-04 0.31420623920E-04 0.31052223104E-04
 0.88293448002E-05 0.75339169765E-05 0.29243809834E-04 0.29732192939E-04 0.54123561650E-05
 -.15972968193E-06 0.20451049712E-04 0.31233421147E-04 0.29130285789E-04 0.24664751752E-04
 0.22176684233E-04 0.27368056053E-04 0.72330453079E-04 0.16288326891E-03 0.24452202511E-03
 0.26210995578E-03 0.22213915693E-03 0.16294404046E-03 0.10160121208E-03 0.46005751805E-04
 0.18434118054E-04 0.24608614421E-04 0.32714448807E-04 0.20437653005E-04 0.92969151044E-05
 0.19340332759E-04 0.29195626432E-04 0.17843207580E-04 0.65419782249E-05 0.19546763635E-04
 0.39446439425E-04 0.40099926377E-04 0.29453264979E-04 -.51687295048E-05 0.11238680202E-04
 0.50523578736E-04 0.10830387350E-03 0.15641940762E-03 0.16184238164E-03 0.12572675575E-03
 0.81252739292E-04 0.52457188360E-04 0.37703624187E-04 0.30852724947E-04 0.31420623930E-04
 0.32714448810E-04 0.25537573157E-04 0.15919490529E-04 0.16923043541E-04 0.24051546015E-04
 0.22299788147E-04 0.14865839100E-04 0.18499411770E-04 0.31371550698E-04 0.32694581121E-04
 0.15911354094E-04 -.20711653619E-05 0.22844798465E-04 0.53203720505E-04 0.77396789514E-04
 0.82305577287E-04 0.65928859215E-04 0.40676155578E-04 0.24896194411E-04 0.27065566186E-04
 0.39108589014E-04 0.46502494811E-04 0.42456237608E-04 0.31052223122E-04 0.20437652996E-04
 0.15919490529E-04 0.17146285330E-04 0.19289654571E-04 0.18397047847E-04 0.16348745150E-04
 0.17684766124E-04 0.21118653258E-04 0.19124314935E-04 0.87027821039E-05 -.14256542933E-05
 0.18108180662E-05 0.51931825329E-04 0.49813718356E-04 0.28175538745E-04 0.12617793317E-05
 -.80247634315E-05 0.77694146157E-05 0.34169117484E-04 0.52262168438E-04 0.53907386942E-04
 0.41083385071E-04 0.21949589730E-04 0.88293448144E-05 0.92969151115E-05 0.16923043544E-04
 0.19289654560E-04 0.15078127712E-04 0.13479946861E-04 0.17344001654E-04 0.18833191067E-04
 0.13562528106E-04 0.81344222327E-05 0.10698844919E-04 0.22386954495E-04 0.38903422531E-04
 0.20815548524E-04 -.15494003307E-05 -.16401568452E-04 -.71650757079E-05 0.25624466446E-04
 0.57084642194E-04 0.62957309652E-04 0.44625468277E-04 0.20815548510E-04 0.49571297716E-05
 0.61328650247E-06 0.75339169818E-05 0.19340332756E-04 0.24051546011E-04 0.18397047852E-04
 0.13479946842E-04 0.17085602247E-04 0.21120560200E-04 0.17115940479E-04 0.12642564386E-04
 0.19340332765E-04 0.33719495251E-04 0.42127094073E-04 0.37330147443E-04 -.72631474026E-05
 0.34155782629E-05 0.31684671612E-04 0.64378519156E-04 0.79459958819E-04 0.62839775680E-04
 0.25691092851E-04 -.40017636636E-05 -.92387090227E-05 0.38586832574E-05 0.19902508637E-04
 0.29243809847E-04 0.29195626444E-04 0.22299788143E-04 0.16348745153E-04 0.17344001650E-04
 0.21120560201E-04 0.20047019485E-04 0.16805208689E-04 0.20691411832E-04 0.30358119316E-04
 0.32343201493E-04 0.19465143822E-04 0.10697539921E-05 0.37827481641E-04 0.78396602291E-04
 0.10553617991E-03 0.99769706026E-04 0.64647751834E-04 0.23212026868E-04 -.68098117367E-06
 0.18726843791E-05 0.21563691075E-04 0.39340003291E-04 0.41369260661E-04 0.29732192928E-04
 0.17843207551E-04 0.14865839084E-04 0.17684766113E-04 0.18833191046E-04 0.17115940460E-04
 0.16805208668E-04 0.19708500101E-04 0.22172304703E-04 0.19156545598E-04 0.10022812305E-04
 0.22235374111E-05 0.89733095905E-05 0.10985935446E-03 0.13883658958E-03 0.13197956993E-03
 0.96496017065E-04 0.65166317064E-04 0.55463137244E-04 0.56776392874E-04 0.56316902146E-04
 0.52233436577E-04 0.41710834029E-04 0.22164168287E-04 0.54123561704E-05 0.65419782302E-05
 0.18499411763E-04 0.21118653240E-04 0.13562528085E-04 0.12642564375E-04 0.20691411823E-04
 0.22172304714E-04 0.13031944817E-04 0.78848762968E-05 0.16644027269E-04 0.37105539100E-04
 0.68979995234E-04 0.16294404047E-03 0.18938487921E-03 0.18275107773E-03 0.16685171640E-03
 0.16288326893E-03 0.15000076182E-03 0.10672693409E-03 0.54930961987E-04 0.24664751770E-04
 0.10500838158E-04 -.14138811828E-05 -.15972966416E-06 0.19546763635E-04 0.31371550715E-04
 0.19124314953E-04 0.81344222256E-05 0.19340332768E-04 0.30358119304E-04 0.19156545616E-04
 0.78848763181E-05 0.24608614410E-04 0.58040287144E-04 0.87519559351E-04 0.12055363894E-03
 0.25961625150E-03 0.31251029174E-03 0.31692310485E-03 0.29945735176E-03 0.25879920918E-03
 0.16989011345E-03 0.61533267839E-04 0.23276080796E-05 0.30872530736E-05 0.12630511403E-04
 0.10204010366E-04 0.20451049734E-04 0.39446439452E-04 0.32694581135E-04 0.87027821092E-05
 0.10698844905E-04 0.33719495251E-04 0.32343201511E-04 0.10022812329E-04 0.16644027298E-04
 0.58040287165E-04 0.92985900622E-04 0.11949215752E-03 0.17695358898E-03 0.43234941195E-03
 0.46979542246E-03 0.43054467123E-03 0.35692705623E-03 0.24360381298E-03 0.10022184255E-03
 0.57927827442E-05 0.80232768340E-05 0.43510841337E-04 0.40287138596E-04 0.21748156527E-04
 0.31233421147E-04 0.40099926393E-04 0.15911354112E-04 -.14256542684E-05 0.22386954495E-04
 0.42127094062E-04 0.19465143822E-04 0.22235374253E-05 0.37105539107E-04 0.87519559372E-04
 0.11949215754E-03 0.18124430729E-03 0.30848914006E-03 0.56640150267E-03 0.52282890710E-03
 0.42505172114E-03 0.31668213303E-03 0.18257545010E-03 0.62736099672E-04 0.34452335782E-04
 0.71925600821E-04 0.71374762648E-04 0.20996471221E-04 0.27579534070E-05 0.29130285796E-04
 0.29453265004E-04 -.20711653299E-05 0.18108180768E-05 0.38903422531E-04 0.37330147450E-04
 0.10697539921E-05 0.89733096331E-05 0.68979995248E-04 0.12055363895E-03 0.17695358899E-03
 0.30848914005E-03 0.48108895196E-03 -.21498808785E-01 -.20009421860E-01 -.15789353005E-01
 -.10462663586E-01 -.57557416978E-02 -.25130802188E-02 -.72003084782E-03 -.38067405718E-04
 -.18217668597E-04 -.15349524560E-03 -.16704355196E-03 -.15174601089E-03 -.22340146693E-03
 -.25172726212E-03 -.12436209082E-03 0.87554785999E-05 -.17976659343E-04 -.21387109529E-03
 -.80071585720E-03 -.24514256460E-02 -.57557760148E-02 -.10509686815E-01 -.15668643046E-01
 -.19793641025E-01 -.20009421860E-01 -.17102394425E-01 -.12272529180E-01 -.73465896794E-02
 -.36180364381E-02 -.13546060283E-02 -.29118907024E-03 -.76303019206E-04 -.26762615703E-03
 -.45228245801E-03 -.54939170886E-03 -.68845854854E-03 -.79344685604E-03 -.64568450414E-03
 -.31221636350E-03 -.98904697261E-04 -.12234366031E-03 -.39137508708E-03 -.13112940685E-02
 -.35941110326E-02 -.74893483304E-02 -.12354029124E-01 -.16948893028E-01 -.19880998118E-01
 -.15789353005E-01 -.12272529180E-01 -.79587656984E-02 -.43246842201E-02 -.19331709163E-02
 -.63095328301E-03 -.19015748893E-03 -.39366543803E-03 -.87846373383E-03 -.13535391194E-02
 -.17818587469E-02 -.20856699066E-02 -.19815931511E-02 -.13971936292E-02 -.72148039622E-03
 -.34017825978E-03 -.26941949751E-03 -.57428075458E-03 -.17732841033E-02 -.43773927262E-02
 -.81964534807E-02 -.12344750822E-01 -.15672310035E-01 -.17051472914E-01 -.10462663586E-01
 -.73465896794E-02 -.43246842201E-02 -.21682544893E-02 -.87603276819E-03 -.31068014286E-03
 -.51297604219E-03 -.13701069013E-02 -.25039750760E-02 -.35858082439E-02 -.43775416734E-02
 -.45165321706E-02 -.37598888331E-02 -.24559698381E-02 -.13035414986E-02 -.63344100816E-03
 -.37466073096E-03 -.67553751257E-03 -.19912735940E-02 -.44489493294E-02 -.75343037253E-02
 -.10429075858E-01 -.12293530734E-01 -.12374127309E-01 -.57557416978E-02 -.36180364381E-02
 -.19331709163E-02 -.87603276818E-03 -.36264975955E-03 -.58835546118E-03 -.17747380303E-02
 -.36852601366E-02 -.57557416978E-02 -.74429439340E-02 -.82077970209E-02 -.75963047385E-02
 -.57558180248E-02 -.35604607946E-02 -.18525103344E-02 -.81946863104E-03 -.36273078459E-03
 -.64495278632E-03 -.18552479107E-02 -.37427464996E-02 -.57558180248E-02 -.73845745421E-02
 -.81248841079E-02 -.75377115796E-02 -.25130802187E-02 -.13546060283E-02 -.63095328299E-03
 -.31068014288E-03 -.58835546116E-03 -.19323000076E-02 -.44426614610E-02 -.75670432880E-02
 -.10471768729E-01 -.12331082489E-01 -.12411507975E-01 -.10505022968E-01 -.73791348299E-02
 -.43183864497E-02 -.21092508348E-02 -.78869897486E-03 -.24660209831E-03 -.51064798877E-03
 -.14215187394E-02 -.25613614402E-02 -.36047199377E-02 -.43565247995E-02 -.44955189142E-02
 -.37787179053E-02 -.72003084780E-03 -.29118907026E-03 -.19015748889E-03 -.51297604215E-03
 -.17747380303E-02 -.44426614610E-02 -.82756314705E-02 -.12375005548E-01 -.15630920119E-01
 -.16976540493E-01 -.15747830008E-01 -.12302720691E-01 -.80380205947E-02 -.43899783650E-02
 -.19344545656E-02 -.56946497605E-03 -.11098661149E-03 -.34499403830E-03 -.87717570591E-03
 -.13846079905E-02 -.18231602650E-02 -.21277000369E-02 -.20232045459E-02 -.14284715401E-02
 -.38067405669E-04 -.76303019178E-04 -.39366543800E-03 -.13701069013E-02 -.36852601365E-02
 -.75670432880E-02 -.12375005548E-01 -.16897441689E-01 -.19779863108E-01 -.19908542065E-01
 -.17051369395E-01 -.12293582886E-01 -.74240636172E-02 -.37091730392E-02 -.14137704362E-02
 -.29371449786E-03 -.29948684308E-04 -.20619684357E-03 -.41469273124E-03 -.55579377517E-03
 -.72816214282E-03 -.83296504656E-03 -.65186807668E-03 -.27487366962E-03 -.18217668568E-04
 -.26762615698E-03 -.87846373381E-03 -.25039750760E-02 -.57557416978E-02 -.10471768729E-01
 -.15630920119E-01 -.19779863108E-01 -.21498808785E-01 -.19995655829E-01 -.15751555959E-01
 -.10424634562E-01 -.57557760148E-02 -.25659223908E-02 -.79797828093E-03 -.91604490294E-04
 -.17976659329E-04 -.11351112639E-03 -.12709966710E-03 -.13723051735E-03 -.22340146693E-03
 -.23679826422E-03 -.84130638978E-04 0.48519558533E-04 -.15349524562E-03 -.45228245796E-03
 -.13535391194E-02 -.35858082438E-02 -.74429439340E-02 -.12331082489E-01 -.16976540493E-01
 -.19908542065E-01 -.19995655829E-01 -.17088744530E-01 -.12315125210E-01 -.74319705224E-02
 -.37011302302E-02 -.14219873096E-02 -.32600172310E-03 -.12799486584E-04 -.41489961497E-04
 -.55827653942E-04 0.62615852769E-06 -.57715998274E-05 -.68531806861E-04 -.53477641831E-04
 0.16772828392E-04 -.87605660077E-05 -.16704355198E-03 -.54939170886E-03 -.17818587469E-02
 -.43775416734E-02 -.82077970209E-02 -.12411507975E-01 -.15747830008E-01 -.17051369396E-01
 -.15751555960E-01 -.12315125210E-01 -.80834897588E-02 -.44154704679E-02 -.19438457956E-02
 -.60685203209E-03 -.85640982174E-04 -.18536837707E-04 -.52982463185E-04 -.12436641999E-04
 0.32555745632E-04 -.52644209241E-05 -.51946885847E-04 -.31209920497E-04 -.11430449231E-04
 -.58159592243E-04 -.15174601091E-03 -.68845854851E-03 -.20856699066E-02 -.45165321706E-02
 -.75963047385E-02 -.10505022968E-01 -.12302720691E-01 -.12293582886E-01 -.10424634562E-01
 -.74319705224E-02 -.44154704679E-02 -.21487740658E-02 -.80048191375E-03 -.17960359961E-03
 -.15836235224E-04 -.33383026050E-04 -.26643781910E-04 0.24384181618E-04 0.27664194485E-04
 -.20546178533E-04 -.33661082822E-04 -.61985080535E-06 0.10820209731E-04 -.20575351453E-04
 -.22340146693E-03 -.79344685603E-03 -.19815931510E-02 -.37598888331E-02 -.57558180248E-02
 -.73791348299E-02 -.80380205947E-02 -.74240636173E-02 -.57557760148E-02 -.37011302302E-02
 -.19438457956E-02 -.80048191374E-03 -.22341909355E-03 -.24659696500E-04 -.89534298304E-05
 -.15005982039E-04 0.18361316830E-04 0.42835204232E-04 0.19904603917E-04 -.28942471371E-05
 0.18494282880E-04 0.45560701961E-04 0.30966027152E-04 -.30791040828E-04 -.25172726212E-03
 -.64568450415E-03 -.13971936292E-02 -.24559698381E-02 -.35604607946E-02 -.43183864497E-02
 -.43899783650E-02 -.37091730392E-02 -.25659223908E-02 -.14219873096E-02 -.60685203208E-03
 -.17960359958E-03 -.24659696493E-04 0.84167508518E-06 0.29121818201E-06 0.18109379312E-04
 0.38630242392E-04 0.33829021263E-04 0.18751058887E-04 0.27156069025E-04 0.46883046197E-04
 0.34069590473E-04 -.17850059734E-04 -.93289659237E-04 -.12436209084E-03 -.31221636348E-03
 -.72148039621E-03 -.13035414986E-02 -.18525103344E-02 -.21092508348E-02 -.19344545656E-02
 -.14137704362E-02 -.79797828094E-03 -.32600172307E-03 -.85640982164E-04 -.15836235203E-04
 -.89534298411E-05 0.29121817846E-06 0.18525654259E-04 0.27516680242E-04 0.20683907483E-04
 0.12763138256E-04 0.19241526895E-04 0.31336697672E-04 0.22642180173E-04 -.14365935789E-04
 -.53094743688E-04 -.74306262128E-04 0.87554785928E-05 -.98904697268E-04 -.34017825976E-03
 -.63344100815E-03 -.81946863101E-03 -.78869897484E-03 -.56946497604E-03 -.29371449784E-03
 -.91604490294E-04 -.12799486576E-04 -.18536837690E-04 -.33383026040E-04 -.15005982036E-04
 0.18109379303E-04 0.27516680235E-04 0.10221928571E-04 -.32767548017E-05 0.42460125087E-05
 0.17578916823E-04 0.16427603951E-04 0.82777114585E-06 -.12830170077E-04 -.76208634425E-05
 0.14288988108E-04 -.17976659322E-04 -.12234366028E-03 -.26941949751E-03 -.37466073097E-03
 -.36273078456E-03 -.24660209830E-03 -.11098661151E-03 -.29948684293E-04 -.17976659329E-04
 -.41489961461E-04 -.52982463188E-04 -.26643781904E-04 0.18361316830E-04 0.38630242386E-04
 0.20683907483E-04 -.32767548221E-05 -.31336416200E-05 0.11620415513E-04 0.17946331222E-04
 0.15963211822E-04 0.18361316839E-04 0.25467740119E-04 0.29930449827E-04 0.23361067310E-04
 -.21387109533E-03 -.39137508707E-03 -.57428075459E-03 -.67553751257E-03 -.64495278629E-03
 -.51064798875E-03 -.34499403834E-03 -.20619684357E-03 -.11351112641E-03 -.55827653945E-04
 -.12436641970E-04 0.24384181632E-04 0.42835204244E-04 0.33829021254E-04 0.12763138260E-04
 0.42460125069E-05 0.11620415513E-04 0.19853485647E-04 0.22700901708E-04 0.25879239562E-04
 0.27001451068E-04 0.13462882727E-04 -.23352616257E-04 -.92547685725E-04 -.80071585723E-03
 -.13112940684E-02 -.17732841033E-02 -.19912735939E-02 -.18552479107E-02 -.14215187394E-02
 -.87717570596E-03 -.41469273127E-03 -.12709966714E-03 0.62615850993E-06 0.32555745602E-04
 0.27664194468E-04 0.19904603892E-04 0.18751058874E-04 0.19241526883E-04 0.17578916802E-04
 0.17946331202E-04 0.22700901688E-04 0.24000806814E-04 0.12876856971E-04 -.11691006122E-04
 -.57866365449E-04 -.16581631890E-03 -.40093414371E-03 -.24514256460E-02 -.35941110326E-02
 -.43773927262E-02 -.44489493293E-02 -.37427464996E-02 -.25613614402E-02 -.13846079905E-02
 -.55579377515E-03 -.13723051737E-03 -.57715998167E-05 -.52644209330E-05 -.20546178529E-04
 -.28942471388E-05 0.27156069016E-04 0.31336697651E-04 0.16427603931E-04 0.15963211809E-04
 0.25879239555E-04 0.12876856983E-04 -.24329602496E-04 -.74436989859E-04 -.20904809106E-03